<?xml version="1.0" encoding="UTF-8"?>

<!-- generated on 2025-04-25 15:32:00 by Eclipse SUMO sumo Version 1.22.0
<sumoConfiguration xmlns:xsi="http://www.w3.org/2001/XMLSchema-instance" xsi:noNamespaceSchemaLocation="http://sumo.dlr.de/xsd/sumoConfiguration.xsd">

    <input>
        <net-file value="c:\Users\Utilisateur\Desktop\projectrouterl\venv\Lib\site-packages\routerl\environment\../networks/two_route_trafficlight/two_route_trafficlight.net.xml"/>
        <route-files value="c:\Users\Utilisateur\Desktop\projectrouterl\venv\Lib\site-packages\routerl\environment\../networks/two_route_trafficlight/route.rou.xml"/>
        <additional-files value="c:\Users\Utilisateur\Desktop\projectrouterl\venv\Lib\site-packages\routerl\environment\../networks/two_route_trafficlight/det.add.xml"/>
    </input>

    <output>
        <fcd-output value="c:\Users\Utilisateur\Desktop\projectrouterl\venv\Lib\site-packages\routerl\environment\../networks/two_route_trafficlight/fcd.xml"/>
        <summary-output value="c:\Users\Utilisateur\Desktop\projectrouterl\venv\Lib\site-packages\routerl\environment\../networks/two_route_trafficlight/summary.xml"/>
        <tripinfo-output value="c:\Users\Utilisateur\Desktop\projectrouterl\venv\Lib\site-packages\routerl\environment\../networks/two_route_trafficlight/tripinfo.xml"/>
    </output>

    <processing>
        <time-to-teleport value="-1"/>
    </processing>

    <report>
        <no-step-log value="true"/>
    </report>

    <random_number>
        <seed value="23423"/>
    </random_number>

</sumoConfiguration>
